% Model:              busbar.mph
% Version:            COMSOL 6.2.0.290
% Date:               Mar 11 2026, 21:54
% Dimension:          3
% Nodes:              7340
% Expressions:        3
% Description:        Electric potential, Temperature, Displacement magnitude
% Length unit:        m
% x                       y                        z                        V (V)                    T (K)                    solid.disp (m)
0.09749999999999999       0                        0.1                      0.007806237973262846     323.74931897911046       3.085850938603942E-5
0.09749832836307981       0                        0.0982785671072233       0.007806212282113202     323.7502101022124        2.9905421882175674E-5
0.09999999999999999       0                        0.1                      0.007806240445257624     323.7488059181312        3.077740599727002E-5
0.0974921171408749        -0.0018986501956436864   0.1                      0.007806268543713459     323.75005567061356       3.0430532648800045E-5
0.095                     0                        0.1                      0.007806237850527564     323.748814272523         3.101578477764543E-5
0.09999999999999999       -0.002941176470588236    0.1                      0.007806297526149394     323.74999839682454       3.0123805166986885E-5
0.09999999999999999       -0.0021041976222124616   0.09814966878658335      0.0078062489869649195    323.7506408703721        2.9260745163200798E-5
0.09999999999999999       0                        0.09705710435115979      0.007806177062059054     323.75060921482736       2.914839764642719E-5
0.09499999999999999       -0.001915678689878106    0.09778310333723293      0.007806233360602674     323.7508124559005        2.934931259582985E-5
0.09499999999999999       -0.002941176470588236    0.1                      0.00780629775578037      323.7499751805439        3.0366658069985186E-5
0.09499999999999999       0                        0.09705710435115977      0.007806175555815705     323.75062588284067       2.9399212430931824E-5
0.09749388674282988       -0.0033620047137854275   0.09834487124597877      0.007806295382143416     323.7514913453767        2.9180057176809465E-5
0.09748777348565973       -0.0044036734126696895   0.1                      0.007806372084664935     323.75104604032424       2.9906512789938053E-5
0.09741975372343045       -0.0073529411764705795   0.1                      0.007806594528399865     323.7521963444888        2.9356684589479477E-5
0.09749999999999999       -0.005975300077595854    0.09747448860027842      0.007806445995607794     323.75313637850354       2.814764676384993E-5
0.09499999999999997       -0.0058823529411764705   0.1                      0.0078064728109744205    323.75114292437496       2.9783032664435433E-5
0.09999999999999999       -0.0058823529411764705   0.1                      0.007806472253047069     323.75115183044          2.9536384957329095E-5
0.09999999999999999       -0.004484213820384589    0.09794776693663752      0.007806351134056423     323.75171670974265       2.8632411421822124E-5
0.09749999999999999       -0.0023203360149012036   0.09668974249195757      0.007806197956312319     323.75235987282235       2.8480917305374565E-5
0.09749599384115433       0                        0.09553824624927834      0.007806091817745424     323.752544899446         2.8403933487902133E-5
0.09999999999999998       -0.007331502883261296    0.0976614854584746       0.0078065656168074945    323.75305831077145       2.7911124833226263E-5
0.09999999999999998       -0.008823529411764707    0.1                      0.007806731307837054     323.7522956473354        2.9019615213977816E-5
0.09741975372343045       -0.010294117647058837    0.1                      0.007806886245275494     323.7533438926715        2.8878639857154437E-5
0.09745987686171521       -0.009270245986462101    0.09806292796611411      0.007806767453730053     323.75397613159095       2.7896312354282323E-5
0.09499999999999997       -0.008823529411764707    0.1                      0.007806731883521367     323.7522987514733        2.927080698805569E-5
0.09499999999999999       -0.007576357946469989    0.09743401269748513      0.007806586572790043     323.7533197889825        2.7994475669255984E-5
0.09999999999999999       -0.00272499333992427     0.09559638164668213      0.007806152999333461     323.7530378479015        2.7690014997060652E-5
0.09499999999999999       -0.004619097271930423    0.09728749174208219      0.007806345795562195     323.7522207093069        2.8485616794749416E-5
0.1                       0                        0.09411420870231957      0.007805979547691132     323.7536772066673        2.754277561512925E-5
0.09499999999999999       -0.002119879433137334    0.09537431805621302      0.007806112747786296     323.7530742905245        2.797068641206296E-5
0.09499999999999999       0                        0.09411420870231955      0.007805977171069046     323.753702909815         2.780677922800954E-5
0.09749999999999999       -0.004255490351511222    0.09577962106604204      0.0078062544510632175    323.75395903172915       2.7538793189210476E-5
0.09625                   -0.005536900619724237    0.09557525443031853      0.00780633640268417      323.75455502347535       2.722860360154777E-5
0.09999999999999999       -0.0060066045244609595   0.09529266137950534      0.0078063595933173064    323.75472033573755       2.680306992676657E-5
0.09749999999999999       -0.007480327621517476    0.09625086369973496      0.007806541462339475     323.75482840723913       2.7154291046101907E-5
0.09747993843085762       -0.011252770052054575    0.09774134084477229      0.007806985927635733     323.7550072752067        2.7395938377062073E-5
0.09999999999999999       -0.011764705882352943    0.1                      0.007807047513676926     323.7533805707949        2.858035152014594E-5
0.0974197537234305        -0.01323529411764706     0.1                      0.007807216209738814     323.75435078267134       2.8480328290071683E-5
0.09499999999999999       -0.011764705882352943    0.1                      0.0078070480284746484    323.75338966631807       2.8834206656617026E-5
0.10000000000000002       -0.010317938661913967    0.09746678387111443      0.007806874392851576     323.75432597226296       2.728718399037696E-5
0.09499999999999997       -0.01043404291816846     0.0973276137935983       0.007806887366571286     323.7544911535855        2.7451462498267537E-5
0.09749999999999999       -0.00253568062542659     0.09408475353180565      0.007806032553110567     323.7552388987405        2.6985432852243797E-5
0.09749969545147409       0                        0.09260574591282614      0.0078058242820840664    323.75617461384684       2.6821651466871703E-5
0.09749999999999999       -0.011187550796453623    0.09612585593222826      0.007806965474416857     323.756425864698         2.644823879204776E-5
0.09999999999999998       -0.008941469776301267    0.09517175849994278      0.007806670766315654     323.75606985617475       2.6169929343128704E-5
0.09875                   -0.005489847255868747    0.09400855748918006      0.007806228769922338     323.7564146988555        2.6214593967915027E-5
0.1                       -0.004788799398106694    0.09321277861058054      0.0078061018366246075    323.7568549002755        2.588512577887456E-5
0.09624999999999999       -0.010381826135127286    0.09492094889278636      0.007806844616281518     323.7572087765974        2.5947825718568462E-5
0.09499999999999999       -0.009126137019145912    0.09520863466633275      0.007806696114199734     323.7560732751826        2.643210186243084E-5
0.09624999999999996       -0.008272534854913657    0.09379591037599781      0.007806529978385897     323.75783874008624       2.5668659567618575E-5
0.09499999999999997       -0.006818310887937282    0.09537088779459504      0.007806443503482469     323.7549700581487        2.6954423514388022E-5
0.09999999999999999       -0.0025901830902724356   0.09239618613411163      0.00780586485527475      323.75709721390245       2.5950506049581102E-5
0.095                     -0.004733167358775173    0.0940760232277275       0.007806177633410978     323.75564932496866       2.6656961791776064E-5
0.09749999999999999       -0.006783159534424569    0.09392862166615472      0.00780635651666109      323.75724775215343       2.5956469241798138E-5
0.09999999999999999       0                        0.09117131305347934      0.007805619136205504     323.75803252873635       2.5964016643558043E-5
0.095                     -0.0023463679109289094   0.09257312541692919      0.007805871789252904     323.75674502891076       2.638493228441499E-5
0.09499999999999999       0                        0.09117131305347932      0.00780561683429972      323.7580419276208        2.6242487951943608E-5
0.09749999999999999       -0.004973089987276576    0.09272445359885481      0.0078060814910760595    323.7580924213364        2.5663671975797948E-5
0.09999999999999999       -0.0075708512180843795   0.09253048298847402      0.007806364459187604     323.75903689965065       2.4903440795425394E-5
0.1                       -0.01323529411764706     0.0974197537234305       0.00780721967819059      323.75546586884803       2.6840208158615864E-5
0.09999999999999999       -0.014705882352941175    0.1                      0.007807379374567066     323.7543482792468        2.822106558376568E-5
0.0975                    -0.013235294117647048    0.09741975372343047      0.00780721927119407      323.75588046345007       2.693029444793959E-5
0.09745987686171521       -0.01580882352941179     0.09806481529257284      0.007807510659713637     323.7562960570857        2.702423968984719E-5
0.09741975372343048       -0.016176470588235292    0.1                      0.007807539750049193     323.75532060934523       2.816246305889437E-5
0.09499999999999997       -0.014705882352941175    0.1                      0.00780738123110035      323.7543662584116        2.847746598202654E-5
0.095                     -0.01323529411764706     0.0974197537234305       0.0078072198910324195    323.755459883564         2.7108008039858298E-5
0.09999999999999999       -0.01194105867473877     0.09492409807085819      0.007807053752229207     323.757552589418         2.553154092632567E-5
0.09749999999999999       -0.013918461558969818    0.09484524171571049      0.00780732200380031      323.758863663554         2.530035628717373E-5
0.09749999999999999       -0.010690550906395244    0.09429404582273339      0.007806873339481603     323.75832219553746       2.5448165103530546E-5
0.09999999999999999       -0.010535893336189907    0.09265980968121382      0.007806811813776498     323.7601878638797        2.4421163814118726E-5
0.09499999999999999       -0.01036409135987309     0.0932075162685685       0.007806797505049017     323.7592975856609        2.5056226195593264E-5
0.09499999999999999       -0.01177829710481549     0.09481465898638129      0.007807028960102478     323.7576024634342        2.5769860949101914E-5
0.09749999999999999       -0.01239574664735139     0.09356085284627529      0.007807111269592742     323.7600476447779        2.4747025668458E-5
0.09745987686171524       -0.0172794117647059      0.09806481529257285      0.007807662009934757     323.7566539308337        2.6887222140413928E-5
0.09741975372343048       -0.01911764705882353     0.1                      0.00780780419771035      323.7559416938861        2.7933459928143427E-5
0.09499999999999997       -0.017647058823529415    0.1                      0.0078076811791116104    323.75515660653036       2.820615913108351E-5
0.09999999999999999       -0.017647058823529415    0.1                      0.007807681096738579     323.7551470511766        2.7946982938322204E-5
0.09745987686171521       -0.020220588235294122    0.09806481529257287      0.007807908887480289     323.7572460866994        2.6682941241410204E-5
0.09741975372343045       -0.022058823529411742    0.1                      0.007807982563081294     323.7563614424708        2.779396474651543E-5
0.09499999999999999       -0.020588235294117647    0.1                      0.007807907941835448     323.7557012365576        2.8023390366948655E-5
0.09999999999999999       -0.020588235294117647    0.1                      0.007807908266360491     323.75570185043176       2.7760436245935035E-5
0.09749999999999999       -0.003163020440128584    0.09152028553155493      0.007805781704395247     323.75920700549995       2.54237819304787E-5
0.09749843186234819       -0.0018951801274152667   0.08930807362652686      0.0078053628659793105    323.7625614920292        2.4554843122245664E-5
0.09749686372469635       0                        0.08966032972174948      0.007805388058850901     323.76112302662597       2.5262184218345974E-5
0.09999999999999999       -0.0049679908177750675   0.09091903475649132      0.00780587912609479      323.76054277183505       2.4561390519010447E-5
0.09749999999999999       -0.009047803940289074    0.09261219581700897      0.007806579384639826     323.7600572806967        2.475664411357381E-5
0.09874999999999998       -0.008086304302979254    0.0910818081954527       0.007806325378695398     323.7620630738937        2.4004188378261557E-5
0.09781249999999998       -0.007083156366248226    0.0916925120011936       0.007806227692893211     323.76067593245176       2.4603923512474282E-5
0.09499999999999999       -0.007559714544388169    0.09256458195280412      0.007806355704802953     323.7589865648733        2.5210140613177847E-5
0.09999999999999999       -0.0024981351825911075   0.08961369602546265      0.0078054549890093925    323.76174857425104       2.445943917893937E-5
0.09499999999999999       -0.004971246922622724    0.0910632080573335       0.007805901966249861     323.7602650425205        2.4930018394628428E-5
0.09999999999999999       0                        0.08822841740463912      0.007805074114509038     323.7634974636976        2.441686130929093E-5
0.09500000000000001       -0.002580767374783469    0.0896998652290592       0.0078054761843837465    323.7616133370074        2.4778046317278066E-5
0.09499999999999999       0                        0.0882284174046391       0.007805073234567273     323.763495893108         2.471171031621274E-5
0.1                       -0.00951012753087391     0.09063257946512424      0.0078065355044699145    323.76321065214694       2.3428089832160482E-5
0.09812499999999998       -0.00988661069865255     0.09115978641214638      0.007806637718381586     323.7628901315803        2.3725083625479036E-5
0.09999999999999999       -0.007479607546273276    0.08963997272958246      0.007806085618674658     323.7640842124737        2.3275764533496587E-5
0.0975                    -0.006225427234448001    0.09035159039345798      0.007805966990200172     323.7625874535425        2.4052968431683024E-5
0.0975                    -0.008601757387874153    0.08963313340243141      0.0078062896393310535    323.76516625230755       2.3132491263945293E-5
0.09499999999999997       -0.010151737592068609    0.09085915598281621      0.007806669345873179     323.7631190868314        2.3734522842054004E-5
0.09749999999999999       -0.011686917094325846    0.09123776462884005      0.007806970878941194     323.76356355049023       2.34874582302093E-5
0.09999999999999999       -0.016176470588235296    0.09741975372343048      0.007807556508158121     323.7563332657433        2.650705944017245E-5
0.1                       -0.01470588235294118     0.09483950744686095      0.007807430167970698     323.75863730714957       2.510688643566651E-5
0.09749999999999999       -0.015441176470588248    0.09612963058514569      0.007807495435979834     323.75789234013314       2.5891163908048162E-5
0.09499999999999999       -0.016176470588235296    0.09741975372343048      0.007807555916777768     323.75631817400506       2.6775206351016613E-5
0.09499999999999999       -0.014686797113555914    0.0946890180476854       0.007807433387456532     323.75882161479007       2.5299018050679264E-5
0.09999999999999999       -0.013311157791144685    0.09242051495038234      0.0078072646276293916    323.7616765721336        2.3839693978874224E-5
0.0975                    -0.014653755676616883    0.09355511857742575      0.007807452108589937     323.7608969058704        2.443379482001478E-5
0.1                       -0.011830024441233973    0.09020830251517922      0.007806986596759906     323.76512041306285       2.2759833387496976E-5
0.09749999999999999       -0.010978087541300304    0.08891467641140482      0.007806750554607529     323.76793058884164       2.2253069948249736E-5
0.09499999999999999       -0.012850434619963986    0.09219760762169231      0.007807189729176902     323.761854261693         2.4067361334732326E-5
0.09499999999999997       -0.012127672366673309    0.08954694526322265      0.007807034637947619     323.76665116478074       2.2626742415674164E-5
0.0975                    -0.012756030349348505    0.08977325103114195      0.00780717904389094      323.7669698605777        2.2449067334361677E-5
0.09745987686171521       -0.02316176470588236     0.0980648152925729       0.007808051212401276     323.75756730304937       2.6573632336230653E-5
0.09741975372343045       -0.02500000000000003     0.1                      0.007808059860123219     323.7565247234042        2.7746805242026062E-5
0.09999999999999998       -0.023529411764705885    0.1                      0.0078080329392064465    323.75598969406093       2.7666023946712695E-5
0.09499999999999997       -0.023529411764705885    0.1                      0.0078080327678196676    323.75598855732665       2.7930908950305738E-5
0.09499999999999999       -0.01911764705882353     0.0974197537234305       0.007807837771689007     323.757034157922         2.6534691370907854E-5
0.09499999999999999       -0.022058823529411766    0.09741975372343048      0.007808025836276679     323.75746504160037       2.6389314470865564E-5
0.09750000000000002       -0.014008520072042913    0.09104976492205216      0.007807412725619575     323.7649142352822        2.301893574968751E-5
0.09750000000000003       -0.018382352941176475    0.09612963058514574      0.007807816461064189     323.75865905848036       2.5616632340488677E-5
0.09999999999999999       -0.01911764705882353     0.0974197537234305       0.007807837674286837     323.75703481203067       2.626285992013908E-5
0.09745987686171524       -0.026838235294117652    0.09806481529257284      0.007808059696302538     323.7575817521611        2.657117759540228E-5
0.09741975372343048       -0.027941176470588237    0.1                      0.007807996572068001     323.75638403222655       2.7790258328069195E-5
0.09999999999999999       -0.02647058823529412     0.1                      0.007808040042093783     323.756002455568         2.766410097727936E-5
0.09499999999999999       -0.02647058823529412     0.1                      0.0078080398688742956    323.75600138657813       2.7929052074109232E-5
0.09745987686171523       -0.025000000000000005    0.09806481529257287      0.007808078538547776     323.7576161179256        2.6554325743565944E-5
0.09749999999999999       -0.021323529411764738    0.09612963058514572      0.007808046081590134     323.7591787390475        2.543975583130322E-5
0.09999999999999999       -0.022058823529411766    0.0974197537234305       0.007808025759326778     323.7574660870124        2.611406638907162E-5
0.09749999999999999       -0.0037903602548305776   0.08895581753130419      0.007805449952368169     323.764112900596         2.3868702885693136E-5
0.09749902776782059       -0.0018951801274152667   0.08783615633702552      0.0078050457206978825    323.76554771296026       2.3774420609082932E-5
0.09749805553564116       0                        0.08671649514274685      0.0078046837650522375    323.76723697272047       2.3738566032384252E-5
0.09999999999999998       -0.004999953134877675    0.08821176983354917      0.007805460427314532     323.76575682263916       2.3057005998567572E-5
0.095                     -0.00765683858963534     0.08958556524817936      0.00780611790114041      323.76426664540634       2.3507433197874772E-5
0.1                       -0.0025807673747834693   0.08675696958021901      0.007804818226329067     323.76775248929556       2.291071191450571E-5
0.095                     -0.005161534749566938    0.08822841740463909      0.007805488702337201     323.7657914532252        2.333211013219054E-5
0.09999999999999998       0                        0.08528552175579888      0.007804248532646288     323.77006383296344       2.290900924070834E-5
0.09749940364851119       -0.0019355755310876304   0.08489739221937684      0.007804205783188162     323.77231953058134       2.223128260288233E-5
0.095                     -0.0025807673747834632   0.08675696958021897      0.007804818559312736     323.7677482498503        2.322179196123577E-5
0.09499999999999999       0                        0.08528552175579887      0.007804249333363391     323.77006267965595       2.3218624729587862E-5
0.09999999999999999       -0.009828502715927369    0.08828240755958702      0.007806439703231696     323.7681926751874        2.2009033255072533E-5
0.0975                    -0.008808018987982037    0.08775170577190261      0.007806129335119009     323.7693516645743        2.2018608833109753E-5
0.09749999999999999       -0.006385777033916002    0.08748440415876943      0.0078055636672855555    323.7685193458345        2.241995530754041E-5
0.09999999999999998       -0.0076100193182650246   0.08674039091289976      0.007805709675236483     323.7705141552364        2.161309165643928E-5
0.09499999999999999       -0.010126105194416153    0.08794444183098384      0.007806480825608902     323.76913583435635       2.2068937678842595E-5
0.09749999999999999       -0.011996920166351394    0.08709558341756064      0.0078069537335938135    323.7727730180841        2.100747824810213E-5
0.0975                    -0.009014280588089925    0.0858702781413738       0.007805953888032288     323.77406373372025       2.0909121862866626E-5
0.1                       -0.017647058823529415    0.09483950744686097      0.007807793455427993     323.75953469786185       2.479870595699345E-5
0.09999999999999998       -0.016176470588235313    0.09225926117029143      0.00780773645934059      323.7630222365759        2.3376278659177118E-5
0.09750000000000003       -0.01691176470588238     0.09354938430857622      0.007807764632152733     323.7616750843333        2.4175549086985767E-5
0.095                     -0.017647058823529422    0.09483950744686097      0.0078077936776879365    323.75952967489604       2.5081296605260266E-5
0.09499999999999999       -0.01600735677612978     0.09220744796087127      0.007807713501958279     323.7630516975368        2.3659433820358964E-5
0.09999999999999998       -0.014659935232430456    0.08989693423518018      0.007807588555640646     323.76705466283954       2.2139482750864202E-5
0.09750000000000003       -0.016514280657719437    0.09158992919048559      0.007807836498314115     323.76487732630886       2.3029005163363744E-5
0.09999999999999999       -0.012944404855801159    0.0869384599731658       0.007807242512340941     323.77320341923104       2.064329807410412E-5
0.09749999999999999       -0.011135672276723404    0.08540824490206735      0.007806587307377314     323.77661658691335       2.019557783119438E-5
0.09750000000000003       -0.013825143604371162    0.08830873743344385      0.007807455225748116     323.77080189756066       2.1413116678173596E-5
0.09499999999999999       -0.014705882352941164    0.08967901489372193      0.007807610884794231     323.76755016894725       2.2311481951729075E-5
0.09499999999999999       -0.013127287822647955    0.08686113752608597      0.007807309354756307     323.7735519976321        2.089214800185454E-5
0.0974598768617152        -0.02977941176470587     0.09806481529257287      0.007807932165877526     323.75728349058795       2.667717427594877E-5
0.09741975372343045       -0.03088235294117646     0.1                      0.007807832114896118     323.7559850754161        2.792621946436182E-5
0.09999999999999999       -0.029411764705882356    0.1                      0.007807929421717691     323.7557364742813        2.7754919504126894E-5
0.09499999999999999       -0.029411764705882356    0.1                      0.007807929097812481     323.7557358796835        2.8017910699161912E-5
0.09745987686171521       -0.03272058823529412     0.0980648152925729       0.007807698923877014     323.75670870805266       2.6877851400989515E-5
0.09741975372343047       -0.03382352941176472     0.1                      0.007807576293208261     323.75532555890544       2.8152270074526112E-5
0.09999999999999998       -0.03235294117647059     0.1                      0.007807714775552234     323.7552043738006        2.7937267038066895E-5
0.09499999999999999       -0.03235294117647059     0.1                      0.00780771456413988      323.7552045524413        2.8197391863553248E-5
0.09999999999999999       -0.027941176470588237    0.09741975372343048      0.007808040452075394     323.75749631349106       2.6110599356191877E-5
0.09999999999999999       -0.025                   0.09741975372343048      0.00780810162787185      323.7576517274646        2.6061983611752665E-5
0.0975                    -0.0235294117647059      0.09612963058514572      0.00780813736764215      323.759363845299         2.5373431385284555E-5
0.09499999999999999       -0.025                   0.09741975372343048      0.0078081014987947265    323.7576494479344        2.63395499544806E-5
0.09499999999999999       -0.027941176470588237    0.09741975372343048      0.007808040558659412     323.75749604234545       2.6385318673569347E-5
0.095                     -0.02058823529411764     0.09483950744686095      0.007808072841563763     323.7601575127537        2.487529375519981E-5
0.095                     -0.023529411764705882    0.09483950744686097      0.007808228540343745     323.76051649285495       2.477117170681374E-5
0.09750000000000003       -0.019852941176470566    0.09354938430857619      0.007808107348283474     323.7623849891169        2.393418070290979E-5
0.09999999999999999       -0.020588235294117647    0.09483950744686097      0.007808072739862139     323.7601583301674        2.458948913245182E-5
0.09750000000000002       -0.02573529411764706     0.0961296305851457       0.007808161529988321     323.75945538863385       2.5361511044510166E-5
0.0975                    -0.022794117647058836    0.09354938430857619      0.007808313946814019     323.76285279966845       2.3798386441253012E-5
0.09999999999999998       -0.023529411764705875    0.09483950744686095      0.007808228522784902     323.76051697805593       2.448214040961269E-5
0.09749880729702237       0                        0.08377353877074477      0.007803673422921848     323.77433259488396       2.2257056455095777E-5
0.09749999999999999       -0.003871151062175219    0.08602124566800894      0.0078047891337980685    323.7705613758008        2.2270125853059865E-5
0.09999999999999998       -0.00516153474956694     0.08528552175579888      0.007804823258780372     323.7726270375584        2.1422962399136803E-5
0.09499999999999999       -0.007733024272174722    0.08652028800400988      0.007805704224579948     323.77111754202645       2.1781382171225666E-5
0.0975                    -0.006451918436958649    0.08454979784358883      0.007804929683223244     323.77583705369153       2.0794494835775255E-5
0.09999999999999999       -0.002580767374783469    0.08381407393137878      0.0078038616544892775    323.77491448698896       2.1374237430558093E-5
0.095                     -0.00516153474956694     0.08528552175579887      0.007804824227715311     323.77262413803277       2.1746562324109516E-5
0.09999999999999999       0                        0.08234262610695867      0.007803029239444085     323.7776000965651        2.144737341494067E-5
0.09750000000000003       -0.0038711510621752053   0.08307835001916868      0.007803811681530662     323.77811968428955       2.0722546493138878E-5
0.09749954315947458       -0.001935575531087622    0.08195441270202405      0.007802966877374207     323.7800410881512        2.0739618605792766E-5
0.09500000000000001       -0.002580767374783469    0.08381407393137874      0.007803862033278804     323.77491387365455       2.1701870744460985E-5
0.09499999999999999       0                        0.08234262610695864      0.007803047834855443     323.77759794574877       2.1771114787604818E-5
0.09999999999999999       -0.010295536904005082    0.08522026827873769      0.0078063050796999675    323.7761227703749        2.0154454178511566E-5
0.1                       -0.0077423021243504106   0.08381407393137877      0.007805152574479964     323.77817450102657       1.995564588416878E-5
0.0975                    -0.008378291356220166    0.08410645212416624      0.007805424601822237     323.7782941066723        2.0070423033127926E-5
0.095                     -0.01038811281883361     0.08521037585489796      0.007806336200344317     323.7762156493477        2.046225461450966E-5
0.09749999999999996       -0.013015752791402482    0.08527649042371648      0.007807289173328321     323.7782911076939        1.975984821655276E-5
0.09999999999999999       -0.012904217760157084    0.08369184332134699      0.007807247586330171     323.78252019047426       1.8743827941473976E-5
0.0975                    -0.010274424387095412    0.08372090638657405      0.007806126502968916     323.78089468516475       1.9413914404885403E-5
0.1                       -0.01911764705882353     0.09225926117029146      0.007808137276878346     323.76393269204266       2.309961430119599E-5
0.09750000000000003       -0.01611679660955649     0.08963047407239494      0.007807903319069268     323.7687241010665        2.1890484857133005E-5