% Model:              busbar.mph
% Version:            COMSOL 6.2.0.290
% Date:               Mar 11 2026, 21:54
% Dimension:          3
% Nodes:              7340
% Expressions:        3
% Description:        Electric potential, Temperature, Displacement magnitude
% Length unit:        m
% x                       y                        z                        V (V)                    T (K)                    solid.disp (m)
0.095                     -0.019103745825808482    0.0605479370247642       0.007783982710639523     322.69326520635707       4.922046462956318E-6
0.09652562343177208       -0.019580696799853723    0.06021647042328926      0.007790625390404067     322.704686177528         4.105407704121966E-6
0.09500000000000001       -0.02147328852432529     0.05985410199391652      0.007802963217482724     322.7153963481865        3.7393727116858912E-6
0.09500000000000001       -0.02014589800608349     0.05852671147567472      0.007789289387858702     322.71238553231984       3.679940124767948E-6
0.09999999999999999       -0.02396122811544145     0.06303711367674598      0.007814974945851746     322.7163641412299        3.692961257738384E-6
0.09999999999999998       -0.02314589803549557     0.06070633909793396      0.007893207841939474     322.8457992071504        2.3387892761941764E-6
0.09999999999999999       -0.025                   0.06100000000000001      0.007889577080289839     322.836370583485         2.35702246844624E-6
0.098541130520999         -0.022902861807944583    0.06248167820235583      0.007814794309979077     322.7197018834559        3.7183982508802663E-6
0.09824642804224754       -0.019845460222822298    0.058070947685241944     0.007806578304814193     322.7473739651559        2.7599919265719323E-6
0.09999999999999998       -0.02014589803492487     0.05852671151496055      0.007860461347559425     322.82499807905793       2.2186073537581234E-6
0.09999999999999999       -0.017837600640608745    0.05896843669894064      0.0077811355329061435    322.70654199111357       3.4856662007376735E-6
0.09788819046071466       -0.018430632022156956    0.060170521759972284     0.007784223066712426     322.69946267653455       4.1101788907580245E-6
0.09650801400401894       -0.019616353894362032    0.05764884023852876      0.007783964304466544     322.717381320116         3.231230401126662E-6
0.09646829253575988       -0.018099549694866015    0.05765950388649978      0.00776932513765599      322.7005792957655        3.975416814373585E-6
0.09644409523035732       -0.018055414194788896    0.05937257438198066      0.007775108932475098     322.69289229586775       4.426449719272663E-6
0.095                     -0.01768019636742081     0.05857462700398905      0.007767404910310082     322.68891973504793       4.867013657810037E-6
0.095                     -0.019293660661190377    0.05685410122440866      0.007770868324444188     322.7075725755381        3.6108233482926027E-6
0.09612782980248626       -0.019130714410784136    0.05624558687863311      0.007766118771325868     322.7098006574154        3.308055841966749E-6
0.09785714213500164       -0.017580086238240512    0.057553065598593044     0.007769160752784639     322.70305648566966       3.7352858890735377E-6
0.09821428427000321       -0.019160518443391044    0.056378569965588925     0.007787304732289834     322.74162009478647       2.6906767731063707E-6
0.09999999999999998       -0.01929366090206604     0.056854101964504446     0.007846040750608506     322.82625739749477       2.1208221715578014E-6
0.09708333333333335       -0.017489282130088837    0.05571914077083042      0.007751508945178091     322.6967092274836        3.787847973844338E-6
0.09827638092142925       -0.020840520238311778    0.059324202598411195     0.007820858126861398     322.7521680929795        2.8054300234632466E-6
0.09999999999999998       -0.02147328848503944     0.05985410196507515      0.007878413572918378     322.8344969903232        2.2907840371178847E-6
0.1                       -0.019424839701210044    0.061104034485025396     0.007796452452901407     322.70809766879313       3.6863985865407464E-6
0.09875000000000003       -0.020104436903614208    0.06214914639022264      0.007796493919347538     322.69990242291175       4.177520785169163E-6
0.09705357581659342       -0.020633138803381496    0.06107133001220141      0.007800294080204498     322.71008357309705       3.93380208006135E-6
0.09880513095090718       -0.022095748953764698    0.06025026912266802      0.007839882096533576     322.76927676617345       2.6911520181114534E-6
0.1                       -0.021554169146307138    0.062469961783957625     0.007807544333718595     322.7112592302829        3.749343427902628E-6
0.0985804133195395        -0.02354671604488597     0.060821337109789125     0.007839964760505936     322.7616450203098        2.7626412633779714E-6
0.09708190361155286       -0.02223637792322269     0.06202460883704904      0.007806979279025154     322.71057847847175       3.9999304585619655E-6
0.09660715163318682       -0.02048224350074458     0.05894840172898292      0.007798531671255905     322.7217890504531        3.236831018200114E-6
0.09687282962238274       -0.022269365664310387    0.060342624460389564     0.007814441248717262     322.7277122207121        3.2045190112029483E-6
0.095                     -0.021089058619895393    0.06223001273746406      0.0077951591057367235    322.69394182836396       5.065080302336777E-6
0.09666380722310566       -0.023688721740427028    0.06085495937867815      0.007817831243994017     322.7260847570065        3.2778297573414653E-6
0.09666666666666665       -0.025                   0.061000000000000006     0.007819272546789892     322.7264264975036        3.278639618816569E-6
0.095                     -0.025                   0.061000000000000006     0.007814075657031495     322.7173211840061        3.8093352371203332E-6
0.095                     -0.023395923168355176    0.0630181829210106       0.0078012964279122994    322.6953122967145        5.085967753224356E-6
0.0970833333333333        -0.024279436685824163    0.06248187223989809      0.007810722768070292     322.7112564984563        4.001679343615378E-6
0.095                     -0.02314589877559134     0.060706339338809624     0.007811335861371889     322.7169385507157        3.78653215280334E-6
0.09833333333333333       -0.024999999999999998    0.061000000000000006     0.007838715483848544     322.7574414556444        2.842668765885339E-6
0.09999999999999998       -0.02685410196450443     0.06070633909793396      0.007888431087080879     322.83857608703715       2.3369534377726704E-6
0.09855604197835267       -0.026338736361332812    0.06084874216860733      0.00784072973452249      322.7625364422202        2.7722787511663757E-6
0.09999999999999999       -0.02653466813924904     0.0631184337675019       0.007812140550263146     322.7121769857887        3.8064440188526262E-6
0.09749999999999998       -0.02555493307232972     0.06336398360805841      0.007805517575552174     322.700479239633         4.364972803820205E-6
0.09624999999999996       -0.027202546998709894    0.06173528103756513      0.007808064601518948     322.7114251502399        4.032414501717378E-6
0.09680965161583417       -0.027404778654304733    0.0604970027855005       0.007815475280079703     322.72725460004216       3.231160813403983E-6
0.09749999999999996       -0.027550992773011113    0.06276422273632064      0.007804437327608096     322.70337491464574       4.234718046800591E-6
0.09666666548188232       -0.025936522380099688    0.06092645980595267      0.00781857411472277      322.726302909482         3.2758514054334827E-6
0.095                     -0.025957096666686292    0.06303476522377094      0.0078025679978794655    322.6965220007304        5.0463923641442644E-6
0.09500000000000001       -0.02685410122440867     0.060706339338809645     0.007811316920132683     322.7169405640744        3.7906588825009244E-6
0.09842224174587481       -0.017802422119574012    0.055508919341890006     0.007761702551357849     322.71537646389964       3.159828918652786E-6
0.09666666666666665       -0.019000000000000003    0.05500000000000001      0.0077539312152256805    322.7096809709822        3.1449387040295504E-6
0.09833333333333333       -0.019000000000000003    0.055                    0.007771864886433884     322.73819188200565       2.6001464476252754E-6
0.095                     -0.016935954701961936    0.0561156060845102       0.0077457029693644725    322.68273665257584       4.808670517731223E-6
0.095                     -0.019000000000000003    0.055000000000000014     0.007748720413606241     322.7005989172357        3.5885387458193056E-6
0.09999999999999999       -0.019000000000000003    0.055000000000000014     0.007831893252001591     322.83125567074376       1.9925520555409076E-6
0.09999999999999998       -0.017009381978021716    0.05644628140089071      0.007761453240226589     322.703901231526         3.264944897984007E-6
0.09833333453925565       -0.01907354021255913     0.05406347750275487      0.007760807080403295     322.7352458242753        2.5602200016510673E-6
0.09845931193426617       -0.018287524709883624    0.05431244191707636      0.007756170272943509     322.7228805462601        2.8818077801586395E-6
0.09704913671632431       -0.017644934156432677    0.05366205657473964      0.007730717546738884     322.6901066122148        3.743357194236684E-6
0.09999999999999998       -0.028960017672051527    0.06224718172868961      0.007805581022804109     322.71059048953794       3.74876722810794E-6
0.09634210453365298       -0.0191595303269009      0.05362562232351887      0.0077346283028658525    322.7004740677056        3.2569630461634014E-6
0.095                     -0.028567317406773186    0.06241001170513932      0.007796377282628456     322.69404422338954       5.0680778380315165E-6
0.09499999999999999       -0.02852671147567471     0.05985410199391652      0.007803132893788657     322.7155167915516        3.728273407311333E-6
0.09624999999999999       -0.029052464865446898    0.06057503356490177      0.007801004107594319     322.71222621497566       3.889834835287774E-6
0.09999999999999999       -0.02852671151496054     0.059854101965075145     0.007880732414234816     322.83781981131693       2.2949153659881876E-6
0.09840005306232699       -0.027926337525948794    0.0602379909015026       0.0078314841764269       322.75618956071037       2.7955375290800783E-6
0.09875                   -0.029052464885089817    0.060575033550481085     0.007819551686935057     322.7417056363373        3.1216400612397678E-6
0.09749999999999999       -0.029578218255219058    0.061295965135887066     0.007799445889434571     322.7083432345153        3.973877496426251E-6
0.09672999881133504       -0.02896153963354578     0.05950624053195633      0.00780508897777686      322.7243818887484        3.2246819858774876E-6
0.09827792305038455       -0.02934726125800502     0.05913537417347556      0.007818021079104941     322.7502263035068        2.7871258475189544E-6
0.095                     -0.01705789561889351     0.053647971249841844     0.007722401261905221     322.67550835734136       4.800189675828333E-6
0.09500000000000001       -0.01929366066119038     0.053145898775591345     0.007724753356865228     322.69181548322973       3.5981195156829056E-6
0.09999999999999999       -0.016917589274956197    0.053929483160846184     0.007736686730140992     322.6946701510779        3.101571044924728E-6
0.09999999999999999       -0.01929366090206604     0.05314589803549559      0.0078031196176626145    322.81541472382287       1.8597652161921257E-6
0.09840695336661029       -0.017579221622827646    0.05272901844038514      0.007725053095558993     322.69248363077344       3.3451436373327804E-6
0.09807997574955966       -0.0195241858899281      0.052547356562413244     0.0077362672216431715    322.7208390618206        2.616276101383746E-6
0.09692105226682647       -0.01829605803192593     0.051995354754259204     0.007712574436907258     322.68389268976614       3.7612107560871353E-6
0.09645431673456273       -0.01983867804233188     0.0519404647984877       0.0077124384375750355    322.6925749092717        3.271638752378701E-6
0.1                       -0.02985410196507516     0.05852671151496058      0.007872866407509373     322.8440161844391        2.2174425825107615E-6
0.09999999999999998       -0.030981036949167762    0.06070423132488699      0.007793517253323983     322.70761070688695       3.659194212580166E-6
0.09880225870506958       -0.03024813392488968     0.057908107684805026     0.007816310898683123     322.76472644924206       2.5878658835864685E-6
0.09750000000000002       -0.031605443737427005    0.05982770753545349      0.007782335763863778     322.6993680757607        4.1126759340106275E-6
0.09625000000000002       -0.03072977286567178     0.059177209505564085     0.007786033860079856     322.7069561541455        3.946456872928759E-6
0.0968723758217164        -0.030341770870048572    0.057732303784702683     0.0077875574984035975    322.7219082477441        3.138481587249904E-6
0.09500000000000001       -0.029854101993916513    0.05852671147567472      0.007789548221631469     322.7126822631587        3.6695501498346666E-6
0.095                     -0.030656353366114372    0.0609440441296424       0.007785799143138039     322.69243217120425       4.987668595181307E-6
0.095                     -0.017901232877833392    0.05144277325491593      0.0076996679268741125    322.6676305011888        4.884360190230178E-6
0.09500000000000001       -0.020145898006083487    0.05147328852432529      0.007701802126273464     322.68268038692946       3.7090107566330593E-6
0.09848857918364066       -0.0185294181219289      0.05092369563183811      0.007707223299282297     322.68831061897805       3.2607994853418213E-6
0.09999999999999998       -0.017703738578389396    0.051444254837353674     0.007711482376902949     322.6857473864107        2.9819615025571976E-6
0.09999999999999999       -0.020145898034924847    0.051473288485039466     0.007782490648766592     322.8098781738186        1.7377417337004075E-6
0.09820176684669688       -0.020605745373942413    0.050914595946375506     0.007714858383139053     322.71361478511295       2.557702917997418E-6
0.09697715836728138       -0.019355097665468397    0.05040313642632249      0.007694327633188067     322.67731856502564       3.7886632487811705E-6
0.09999999999999999       -0.019215643101468963    0.04941845432131946      0.007689048122566779     322.67683280324593       2.958420691568376E-6
0.09999999999999998       -0.021473288485039446    0.050145898034924856     0.007767016846777786     322.80722974772533       1.6422972021868275E-6
0.0966742787543523        -0.02101310544180658     0.050516176655816196     0.007693317079553273     322.68601255192897       3.256347477711339E-6
0.1                       -0.03232250034114569     0.05856635186143719      0.007780128595761602     322.70914928146857       3.4322352286266403E-6
0.09999999999999998       -0.030706339097933962    0.056854101964504446     0.00785064910339889      322.8330504845335        2.1112786130143583E-6
0.09858041824345949       -0.030821234469004262    0.056453695035719925     0.007795146162478593     322.7527227162944        2.587197931123944E-6
0.0975                    -0.03272840183989335     0.057544940136784295     0.007763789678006248     322.695278090153         3.987894954499741E-6
0.09666380767341287       -0.030854901409239268    0.05631153707080208      0.007769742391738453     322.71467910203364       3.1583973058194014E-6
0.09625000000000002       -0.03171737058935147     0.05719952068059649      0.007767636993835925     322.7024218841273        3.886569309766218E-6
0.09500000000000001       -0.030706339338809636    0.05685410122440867      0.007771157350505203     322.70792612887277       3.6047099111973443E-6
0.095                     -0.0322298505256863      0.058951183746020056     0.007769676850161352     322.68858668709703       4.914286074900506E-6
0.095                     -0.01934119763988971     0.04912159560048525      0.007672831425507593     322.65412122045734       5.294593701347804E-6
0.09500000000000001       -0.021473288524325285    0.05014589800608349      0.007682600863144612     322.67446838851237       3.85756603841458E-6
0.09785088342334844       -0.0204580971071006      0.04914056243484528      0.0076834588869487954    322.6769120044791        3.5300777622193183E-6
0.09895963607698992       -0.021872926088377896    0.048787892730284936     0.007690493207643369     322.697654358929         2.7743952873369434E-6
0.09791927215397987       -0.022342593984412427    0.049620576864726214     0.007693770528456282     322.7019513759896        2.711597262081164E-6
0.09616186619406673       -0.022218878213944294    0.04968348219121517      0.0076781760819441556    322.6759132468323        3.5515571550028326E-6
0.09642544171167422       -0.02090949480956076     0.04833548049114506      0.007666025537994919     322.6567748487242        4.521308556047151E-6
0.09999999999999999       -0.023145898035495577    0.049293660902066064     0.007746936034153219     322.7905877160451        1.6088137815283093E-6
0.09999999999999999       -0.021403258192343406    0.047955208595843686     0.007675022077060629     322.67512531768637       3.0063624016785026E-6
0.09833333333333333       -0.031                   0.055                    0.00777168412510588      322.7381003781179        2.6004567410227674E-6
0.09854166666666665       -0.032528628668091294    0.05589962204107165      0.007761353230809004     322.71002534969995       3.31034440862489E-6
0.09999999999999999       -0.03310378161967147     0.05610536614043129      0.007758046750138197     322.70240959492725       3.2833936382144063E-6
0.09999999999999999       -0.031                   0.055000000000000014     0.007828961533125442     322.8267592871409        1.992531423681824E-6
0.09666666666666665       -0.031                   0.05500000000000001      0.0077540806344747895    322.7098337861226        3.147250398660948E-6
0.09833256145729358       -0.03090583924909039     0.0539411974858816       0.007758718525481698     322.7339385068321        2.5540866701447803E-6
0.09818136308706887       -0.03177922321482251     0.05377495337672543      0.007745483969130051     322.71316008977107       3.0370077530456453E-6
0.09999999999999999       -0.03070633909793397     0.05314589803549559      0.007806816947470865     322.8210131825349        1.848724747507076E-6
0.09677083333333336       -0.032831466003366144    0.05621157522660153      0.007751361820308732     322.6907516451866        4.085629885045989E-6
0.095                     -0.031                   0.055000000000000014     0.00774876708527661      322.7005302154417        3.5775373880935723E-6
0.095                     -0.033134303338641       0.0565235284121314       0.007748349770895237     322.6822421971689        4.866595804561003E-6
0.09640280950241674       -0.03084344463588142     0.05363832647547638      0.007735255790635461     322.70127176087186       3.237821317118325E-6
0.09695140475120835       -0.03241209217885039     0.05398267878876691      0.00773368731831907      322.6905382413018        3.785136704358382E-6
0.09791845279291872       -0.03038202395072401     0.0523478653514889       0.007731468837240559     322.7164121404111        2.676464673980099E-6
0.095                     -0.021360892512020946    0.04753039854744483      0.007654026748684252     322.64418100218506       5.687147324867719E-6
0.095                     -0.023145898775591332    0.049293660661190376     0.007669760383592502     322.66862833606706       3.982504154177928E-6
0.09999999999999998       -0.03303765169850512     0.05344822610222089      0.007731388065233474     322.6920544385912        3.095614879325661E-6
0.09833301026644303       -0.02394637398347444     0.0490932350463811       0.007690243326939017     322.70564929823735       2.522102835287396E-6
0.09683093309703336       -0.02255998845898317     0.04808299477645466      0.007664518685829116     322.66260638817926       4.122851310774165E-6
0.09854150513322148       -0.02286280202911304     0.04770364888439322      0.007668983249113777     322.672380467315         3.4247572158724064E-6
0.09639728337021324       -0.02360994109775115     0.04916324265980855      0.007671463011279448     322.67433300301803       3.5045387351558224E-6
0.09999999999999999       -0.025                   0.049                    0.007744191212378711     322.7913002558244        1.585477771435345E-6
0.1                       -0.023639501032481806    0.047125821109708636     0.007662485288845334     322.665930834048         3.162198490459501E-6
0.09833333333333333       -0.024999999999999998    0.049                    0.007689533444657838     322.7061167775917        2.546664748524632E-6
0.095                     -0.023768938670195895    0.046831449474832046     0.007645805656906432     322.64081882607746       5.821070286629993E-6
0.09666666666666665       -0.025                   0.049                    0.007670536560359665     322.6756347553673        3.3988307515203364E-6
0.095                     -0.025                   0.04900000000000001      0.007665185692831003     322.66644648276673       4.028062757357482E-6
0.0980822975386061        -0.027455815335121113    0.04952560770132575      0.00769315039176853      322.7028463735624        2.6284785946723616E-6
0.09818241969085245       -0.029074367490503294    0.05059551029603543      0.007710353305137407     322.7118769226458        2.574070443429285E-6
0.09841614876930306       -0.02851302664564        0.048286492205442164     0.007675458458986565     322.6746387218001        3.413258521693521E-6
0.09999999999999999       -0.028526711514960557    0.05014589803492486      0.007762517370686531     322.8004069347473        1.6343746179988915E-6
0.09645764464655657       -0.028077018668598564    0.049849082012583        0.0076820255523215855    322.6793613308946        3.4045162981251616E-6
0.1                       -0.02685410196450443     0.049293660902066036     0.0077422332964766005    322.78335529536224       1.5969834003588932E-6
0.09878796524519697       -0.031964364728468586    0.05207775874144277      0.007722359583681063     322.69734853188044       3.0853239253365073E-6
0.09999999999999998       -0.029854101965075135    0.05147328848503945      0.007777611966159656     322.8023510921543        1.7305031975455706E-6
0.09999999999999999       -0.03219421535868235     0.050927412057577726     0.007704366992956637     322.68031217696796       3.077026034148894E-6
0.09784120984542624       -0.03112290188973349     0.05061323948250455      0.007700534471863944     322.6826414309006        3.504547736836192E-6
0.09708422639645933       -0.031757777967943       0.05231305422596043      0.007717440834814764     322.68760312810815       3.65799050731619E-6
0.095                     -0.033095627681360346    0.053925517531890343     0.007724486447809945     322.67523804707946       4.839930806738439E-6
0.09615158549977625       -0.030332643120228306    0.052249924118813865     0.0077151636138451055    322.69174333993345       3.3522750781894615E-6
0.095                     -0.03070633933880963     0.053145898775591345     0.0077248035571409685    322.6918418606417        3.614509391630812E-6
0.09625                   -0.033133531985161994    0.052278243100431984     0.007706411637838733     322.66607059059794       4.575898792660093E-6
0.09665454363963862       -0.029460053572249054    0.05098653240542939      0.007700085571513249     322.6887718191338        3.2356289289381698E-6
0.09749999999999999       -0.02515534762228665     0.0468433599475112       0.007651013099099517     322.6503283780492        4.352313449277828E-6
0.09833333453925568       -0.025936522497245134    0.049073540212559136     0.0076904298800073       322.7063076069303        2.522553061667316E-6
0.09634257700494488       -0.026376235749711773    0.04915996788012126      0.007671082079392892     322.6737164748336        3.537380391303663E-6
0.09999999999999999       -0.02612249692164009     0.04695925338515468      0.007659305558450115     322.66192355596894       3.2774815238906348E-6
0.09999999999999999       -0.030662714419567583    0.04909829928165625      0.007683967857241732     322.67205201924764       3.0744136570077402E-6
0.09999999999999999       -0.02848303595557232     0.047544874925413975     0.007665881098913612     322.6634634766852        3.262317588096098E-6
0.09750000000000003       -0.027409596540551272    0.04720421253332825      0.007655566725217326     322.6526873610177        4.291417453824049E-6
0.095                     -0.026336157125530252    0.04686355014124252      0.007646202905939548     322.6411369089713        5.808822414254236E-6
0.09500000000000001       -0.026854101224408667    0.04929366066119038      0.007669706931321917     322.6685408727688        3.978154484915907E-6
0.095                     -0.028849497376519415    0.047814439271411366     0.007657579421169734     322.64724094209384       5.5391273633241005E-6
0.09500000000000001       -0.028526711475674715    0.05014589800608348      0.007682560201821036     322.6743547624762        3.858963200557943E-6
0.09625                   -0.029141408686859122    0.04930113364130868      0.007677592679602258     322.6684398672359        4.12307477065492E-6
0.09625000000000002       -0.03208263838457777     0.0499673759707946       0.007681499712783037     322.6544928501318        4.795162806290731E-6
0.09499999999999999       -0.029854101993916513    0.05147328852432528      0.007701824958194359     322.6826567921357        3.7273613134401906E-6
0.095                     -0.032379116234432244    0.05137464614398325      0.007697784724739891     322.66437793006486       5.026836103802997E-6
0.095                     -0.030993840480191878    0.04930378327261557      0.007674663982883075     322.6539243235576        5.318743994373573E-6
0.09991933804537595       -0.0014524689186946995   0.008732430379995944     0.007171507936697879     322.28297885454356       4.5791296106783254E-5
0.09999999999999999       0                        0.010000000000000009     0.0071839177374593294    322.2880095326014        4.500122834376584E-5
0.0980148249939781        0                        0.009323766759529575     0.007174657781409938     322.28440428180147       4.552913843015753E-5
0.09999999999999999       -0.001999999999999999    0.010000000000000005     0.00718394062961785      322.2887353638958        4.462695550043585E-5
0.09980299678073815       0                        0.008024840736335952     0.0071648617358911326    322.2795523102485        4.663111375707401E-5
0.09775741249698906       -0.002275144943701002    0.010145845648379467     0.007183609944278556     322.2892518941668        4.4399195103804673E-5
0.09989846770819857       -0.003035778841194148    0.00857861439793771      0.007170074795001909     322.28289132205924       4.565212003193681E-5
0.09999999999999999       -0.003999999999999999    0.010000000000000007     0.0071839657460933725    322.2894236042153        4.430210268030743E-5
0.09867764931609525       -0.004770298599897752    0.00963645284826222      0.007179168121854512     322.2879123570581        4.445659364565912E-5
0.09999999999999999       -0.005999999999999998    0.010000000000000005     0.007183974019396545     322.2900733626037        4.402433483408491E-5
0.09985529863219048       -0.004990307312393508    0.008304981159295063     0.0071675298291734866    322.2824142992491        4.559385106182774E-5
0.09871259742682816       -0.007249999999999997    0.009569170667921475     0.007178526754008022     322.2883866632456        4.4200307127200933E-5
0.1                       -0.007999999999999998    0.010000000000000007     0.007184046258126743     322.2907083006084        4.378691312755998E-5
0.09985038970731268       -0.006999999999999995    0.00827668267168587      0.007167296401270227     322.28293175116727       4.537196264894411E-5
0.09750500356932897       0                        0.007321220310338689     0.007151560253638358     322.27448544047724       4.7095843834235264E-5
0.09953856586958988       -0.0018267291932887097   0.00699737429047585      0.0071552392726121775    322.27607804329995       4.7090936237646605E-5
0.09923019594063175       0                        0.006152470546240733     0.007147201460754327     322.27206496474986       4.803889588419964E-5
0.09831348716773206       0                        0.004442488766367243     0.007130078286157291     322.26511802847523       4.918255407801084E-5
0.09757639072122136       0                        0.005640784032187401     0.007135926602354526     322.26787114826055       4.8313563836710085E-5
0.09874658048235278       -0.0016362470637400095   0.005152595553729289     0.007137361028374335     322.2686166370867        4.843209609027581E-5
0.09805326231777796       -0.002033902269745969    0.006702882176323128     0.007147687736077614     322.27340888031745       4.7196500382208894E-5
0.09897392374247996       -0.003059849912054586    0.005587665848538363     0.0071417134930377695    322.2708701866555        4.7913561228414355E-5
0.09950007763271757       -0.004035886413564566    0.006877737203190747     0.007154118963483768     322.276348187947         4.6843185328776E-5
0.09811198127941936       -0.0035388965594184314   0.007013267225066895     0.007150839837736611     322.27524498386083       4.6728196866378136E-5
0.09823460373642533       -0.0031309869357558483   0.004326262139995369     0.007128851174384647     322.2657186315779        4.872739893422459E-5
0.09683338291066244       0                        0.004461361046793705     0.007122009222793869     322.26235138262393       4.905681654795014E-5