% Model:              busbar.mph
% Version:            COMSOL 6.2.0.290
% Date:               Mar 7 2026, 20:55
% Dimension:          3
% Nodes:              7360
% Expressions:        3
% Description:        Electric potential, Temperature, Displacement magnitude
% Length unit:        m
% x                       y                        z                        V (V)                    T (K)                    solid.disp (m)
0.09999999999999998       -0.02014589803492487     0.058526711514960555     0.007710364323101701     323.02373758791987       2.242884854267438E-6
0.09833807019193727       -0.01861761261320681     0.058132815120662165     0.007645197430552783     322.91923397703675       3.272873496891727E-6
0.09999999999999999       -0.01790259761806892     0.05897238129320202      0.007640876330484951     322.905113544848         3.489728875414314E-6
0.09999999999999998       -0.01929366090206604     0.056854101964504446     0.007694969222161967     323.02038530461317       2.1378924067333057E-6
0.09624999999999999       -0.01985932491747074     0.0610722747281728       0.007647650688386434     322.89367696713657       4.4688911839530785E-6
0.09749999999999998       -0.02147328850461139     0.05985410197959353      0.007668534190987382     322.9306267051444        3.04459182082434E-6
0.095                     -0.019101286838863613    0.06009657115747159      0.007641403346240421     322.89185674611593       4.81300552966883E-6
0.09749999999999999       -0.02014589802040385     0.058526711495385006     0.007656206624213149     322.92710669484484       3.0001608600461675E-6
0.09793771328061537       -0.01851371484436602     0.060164009475192265     0.007642118696548899     322.8953852060576        4.085507777602217E-6
0.1                       -0.01951617735593001     0.060881097819452085     0.007655259761566195     322.9097223823618        3.52091530926261E-6
0.09749999999999999       -0.020617362996077873    0.062047978298874006     0.007654063523271052     322.8971171658466        4.2965977029676276E-6
0.09749999999999999       -0.023145898405484092    0.06070633921855455      0.007675953635410707     322.9324023010761        3.073339754253104E-6
0.1                       -0.02142416178576367     0.06202438015919147      0.007666431795577854     322.9165688677896        3.491144365564273E-6
0.095                     -0.0208665298417858      0.06137425169709261      0.0076524901940306376    322.8963750537633        4.7839028259633395E-6
0.09625000000000004       -0.02270987956253574     0.06272310725979871      0.0076573916545329395    322.89445618849834       4.586696682108518E-6
0.09999999999999999       -0.019000000000000003    0.055000000000000014     0.007674345782812795     323.0113583127096        2.006015627717833E-6
0.09999999999999999       -0.017040349154389418    0.05655373699503001      0.0076220298290916874    322.8987353904881        3.294508224956002E-6
0.09813051810807723       -0.017671116699391344    0.05580525801859937      0.007620367541901021     322.9044808707283        3.3744022839232906E-6
0.0975                    -0.01929366078144548     0.05685410159451595      0.007640068166987831     322.92256381910653       2.939886607355445E-6
0.09650289664842335       -0.01818035973170181     0.057119297159257676     0.007626090410183692     322.89748872578906       3.873846094331962E-6
0.095                     -0.019293660661190377    0.05685410122440867      0.007629722261686673     322.9026958228327        3.631675725938395E-6
0.095                     -0.017747145368806422    0.058445027765983704     0.007626622874998824     322.8848709478369        4.841407720172015E-6
0.09499999999999999       -0.020145898006083487    0.05852671147567471      0.007645929324918441     322.90750903699274       3.7118615869742393E-6
0.09625000000000003       -0.024728598984467765    0.06271487310884577      0.0076614907226135445    322.8993525582184        4.417496849165266E-6
0.09749999999999999       -0.025                   0.061000000000000006     0.007677666961948588     322.9314753797226        3.0724839341186293E-6
0.095                     -0.02342300094918029     0.062312202649394244     0.007660393644183556     322.8993366796094        4.7764939752051766E-6
0.09750000000000004       -0.02362432282690653     0.06295294240256838      0.00766229764660642      322.9011208558902        4.205167517602094E-6
0.09812499999999998       -0.02501551426399946     0.06256014535967352      0.0076705623058046886    322.9162526307143        3.7393867505846854E-6
0.09999999999999998       -0.024145020726494524    0.06250929145266018      0.007677469337648586     322.92875455029304       3.2963644598279737E-6
0.09749999999999999       -0.019000000000000003    0.05500000000000001      0.007620168105667333     322.9150795825175        2.901179503715081E-6
0.095                     -0.019000000000000003    0.055000000000000014     0.0076098253945932675    322.89493947290566       3.627798729347196E-6
0.095                     -0.017006278143554678    0.056166332492472756     0.007608055923606445     322.8778842636742        4.8191146045423325E-6
0.09749999999999999       -0.026854101594515657    0.060706339218554624     0.007675565049730046     322.9316524239264        3.0636527125654953E-6
0.095                     -0.025832875142028984    0.06247680381512317      0.007661005322898031     322.89896122822387       4.8050985695594874E-6
0.09738789682539681       -0.026385314274810154    0.06307571586805594      0.0076609984110118014    322.8983974533158        4.308389864241272E-6
0.09999999999999998       -0.026569316834427533    0.062328191366051076     0.007677932090142394     322.9310402986626        3.2398905819439857E-6
0.0959722222222222        -0.02744880419908881     0.06155114871087847      0.007661733651600143     322.9063594891712        4.107785560890603E-6
0.095                     -0.026854101224408667    0.060706339338809624     0.0076656720335766095    322.9126497306126        3.807260359485406E-6
0.09499999999999999       -0.028526711475674715    0.05985410199391652      0.0076581623631795616    322.9107753163486        3.7701544587318734E-6
0.095                     -0.02853372938787765     0.06196618276113132      0.007654156102565423     322.89439757435997       4.892267589860668E-6
0.09749999999999998       -0.019293660781445465    0.053145898405484095     0.007598815926520564     322.90569366865117       2.880407356501319E-6
0.09750000000000002       -0.016056002668203426    0.05355580053766002      0.00758229736519528      322.8620057343707        4.347123289432322E-6
0.095                     -0.017085317256069207    0.053610001749361536     0.007586433457559073     322.8698668036505        4.828529348702618E-6
0.09867726727026924       -0.016804762440301074    0.052600764961978526     0.007581444083106965     322.87260626341873       3.677034984090713E-6
0.09999999999999999       -0.01700791943581974     0.053894498693111914     0.00759934935448874      322.88979663866945       3.0591567084616905E-6
0.09667658730158728       -0.028016173057029612    0.06281523954485616      0.007655129213864493     322.8916505536691        4.613371227862095E-6
0.09749999999999999       -0.028526711495388615    0.05985410197959353      0.007668550855220473     322.9306592242237        3.0395266114361033E-6
0.09749999999999999       -0.02950767509401437     0.06217987999187643      0.007651914445132614     322.89294187790057       4.393898987565997E-6
0.09999999999999998       -0.02913524596811722     0.06138481510860057      0.007668577263502841     322.92548693380206       3.2775031505526803E-6
0.09874999999999996       -0.02731750634650542     0.06279417266062017      0.007664903279563299     322.9078722914744        3.9141936523239935E-6
0.09874999999999998       -0.018124464957569583    0.05040141194910817      0.007563418849122425     322.8684003696617        3.52622773374419E-6
0.09749999999999998       -0.02014589802040647     0.05147328850461139      0.0075778634646385       322.8951579965405        2.8820879990773452E-6
0.09999999999999998       -0.017741169628517996    0.05145209401060183      0.007576465157065851     322.87913766351954       2.970854690422113E-6
0.09500000000000001       -0.020145898006083487    0.05147328852432529      0.007568104262493744     322.87631865709557       3.7476065926850283E-6
0.095                     -0.018060306823351503    0.05110468729307917      0.007562983527420548     322.85964602950804       4.958346975162403E-6
0.095                     -0.019293660661190374    0.05314589877559134      0.007588365991241486     322.88562072783515       3.6592231222655375E-6
0.09676470588235292       -0.01948497643039969     0.05020590468365421      0.0075582409891023425    322.86760782904645       3.960479849373574E-6
0.095                     -0.01965601044367404     0.04931175449969312      0.007544823036990596     322.8515101709569        5.1405104194448625E-6
0.095                     -0.021473288524325285    0.05014589800608349      0.007550873309030646     322.8675428815253        3.8913274415107E-6
0.09874999999999998       -0.03018450496468534     0.0611962529473324       0.00765554542334246      322.90739849627323       3.81452876765015E-6
0.09999999999999999       -0.030861334835356326    0.06021262590278832      0.0076548595413594425    322.9152128400414        3.3582610391887028E-6
0.0975                    -0.029854101979593525    0.05852671149538862      0.007656659473411838     322.9279268263783        3.0055436518588583E-6
0.09637822179753275       -0.031247360573324376    0.060113674051062        0.007639965771486204     322.890925916214         4.443368827991001E-6
0.095                     -0.030446581449747597    0.060894945535114084     0.007644648457393581     322.8902170117459        4.950366321764525E-6
0.09749999999999996       -0.03136813039026579     0.061285522863368226     0.007640395053647833     322.88344777102265       4.599287680496341E-6
0.09500000000000001       -0.03070633933880963     0.056854101224408676     0.007629632671659394     322.90252081822956       3.6402163326747556E-6
0.09661006967052424       -0.03153182489688612     0.05790572445686721      0.007633170181569197     322.900366754489         3.849503647512202E-6
0.09500000000000001       -0.029854101993916513    0.05852671147567472      0.0076459576965024955    322.90757065836436       3.715230553848428E-6
0.095                     -0.032035864346065555    0.058935360775751        0.007629988563830421     322.8855033488471        4.873610264494114E-6
0.09999999999999999       -0.019294443980136217    0.049658343819740214     0.007562239863041979     322.87838120029977       2.8410562885896815E-6
0.09749999999999998       -0.02147328850461138     0.050145898020406476     0.007561167910849905     322.8874258546005        2.9262020316360276E-6
0.09860285527047916       -0.03260281227878127     0.05751259699198902      0.00762898512766432      322.90029259698434       3.628176608450967E-6
0.09749999999999996       -0.030706339218555614    0.056854101594512575     0.007639144939267967     322.9209268603139        2.952696674282359E-6
0.09999999999999998       -0.03228388368148405     0.05844274600533208      0.007636917805787073     322.9037079399831        3.363947164642837E-6
0.09631775513185771       -0.03213640184842188     0.05625053596331671      0.007616958866304397     322.8922720944029        3.96643374492246E-6
0.095                     -0.031                   0.055000000000000014     0.007609847940328424     322.8949995135468        3.6274829487620543E-6
0.095                     -0.03297148884049498     0.05668266462142666      0.007611827725950913     322.8787234865035        4.853786194623565E-6
0.09749999999999999       -0.020622759001160812    0.04808912971507515      0.007536141572764675     322.8500043191288        4.228664419462615E-6
0.09875000000000002       -0.021459286922891792    0.04791279019460011      0.007540412038682572     322.86213246223355       3.5116184854159E-6
0.09749999999999998       -0.023145898405484353    0.049293660781445384     0.007549425787632281     322.8808474598373        2.965857512201806E-6
0.09999999999999999       -0.021144653340733056    0.04863238630653507      0.007556640119547735     322.88543180347585       2.6539245383899E-6
0.09999999999999999       -0.023523723055873316    0.047856168046808534     0.007550211503065064     322.8865665605052        2.6286030453025806E-6
0.09907166240921536       -0.024296474619412516    0.04743352474639315      0.007538453034307444     322.86836555120703       3.234229006236281E-6
0.09999999999999999       -0.025                   0.049                    0.00760456980789434      322.98415156088913       1.640527713964382E-6
0.09999999999999999       -0.023145898035495577    0.049293660902066064     0.007603142419438464     322.9766968747947        1.6209587620529666E-6
0.09625000000000002       -0.021971346752513977    0.047917591832570994     0.007531441468989982     322.8477388731807        4.665117113162634E-6
0.095                     -0.021397355822555027    0.04873709015546333      0.007538620438948841     322.85332757672955       4.913351231014744E-6
0.09750000000000003       -0.03299417631360058     0.05639405007452734      0.007614497521404526     322.88741999321957       3.97050136936187E-6
0.09749999999999999       -0.031                   0.05500000000000001      0.007620043201622014     322.91469131339005       2.8994119585207505E-6
0.09999999999999999       -0.03301686378670612     0.05610543552762799      0.007617939479144433     322.8966055091566        3.2149059837120635E-6
0.09999999999999999       -0.031                   0.055000000000000014     0.0076749989645230375    323.0126730388468        2.0065714197296953E-6
0.09999999999999999       -0.03295629686042516     0.053441775249075084     0.007595346454281138     322.88802645688247       3.0751351203512344E-6
0.09850057329659731       -0.032501873552988086    0.05447577340845046      0.007608503258423552     322.90004789279294       3.2671688469047766E-6
0.09999999999999999       -0.03070633909793397     0.05314589803549559      0.007653134337581581     323.0025408542499        1.8732626446424801E-6
0.09999999999999999       -0.025904357986259847    0.04725565085621828      0.007536486651971059     322.86499205502366       3.0301951486468007E-6
0.09809783250027733       -0.026084111723917613    0.04779903296188287      0.0075385890579987205    322.86705625641383       3.4903381831883454E-6
0.09999999999999999       -0.026854101964504423    0.049293660902066015     0.007602893218775587     322.97626622437946       1.631434082806663E-6
0.09667962029774999       -0.032571533583890616    0.05268877962675245      0.007580634477264748     322.8716898747652        4.14077673447612E-6
0.09749999999999998       -0.030706339218554618    0.05314589840548436      0.007599032118512762     322.9059181455781        2.8729987041389446E-6
0.095                     -0.03302644529171202     0.053944261703842034     0.0075891007205849       322.870514549328         4.843398526685237E-6
0.09999999999999998       -0.02985410196507514     0.05147328848503945      0.007630532002804071     322.98917159066286       1.7439992228594533E-6
0.09826628520801503       -0.03148188305099066     0.05175128585769526      0.0075830045551124325    322.8912063662146        3.1880234321376163E-6
0.1                       -0.03204553726830073     0.050947035298005955     0.0075716584767760164    322.8766675857317        3.013400820318615E-6
0.09681706469088655       -0.0315339127791664      0.05160136899878788      0.007573118860890401     322.8746980791278        3.87248197751645E-6
0.0975                    -0.02985410197959352     0.05147328850461137      0.007578236884854722     322.8959749010663        2.8910878042412366E-6
0.09749999999999999       -0.025                   0.049                    0.007546188561499291     322.8799896213673        2.9921021561741393E-6
0.09749999999999999       -0.02425266340503417     0.046515114418114026     0.007518409190802882     322.8361029674434        4.6394717728886704E-6
0.095                     -0.023794285262972975    0.04725007854827466      0.00752283626526136      322.8397503160789        5.5378473884773294E-6
0.09646766765817254       -0.026085124040202752    0.046916454743769084     0.007520813322361123     322.83812130419415       4.935013952964729E-6
0.0975                    -0.0268541015945159      0.04929366078144547      0.007549615715379806     322.8811079901883        2.9674275220594895E-6
0.095                     -0.02654588014911004     0.04757553451855622      0.007526295165069785     322.844057607936         5.324054216359156E-6
0.09841912152122734       -0.0274565829542023      0.047171704336139646     0.007529683728411944     322.8503423590175        3.913685602734497E-6
0.09999999999999999       -0.028647677281519807    0.04801436722716155      0.007543740928511103     322.866815072714         3.0107589443968364E-6
0.0975                    -0.028526711495388615    0.050145898020406476     0.0075612674516181136    322.88768510320193       2.924798546517104E-6
0.09735296453222253       -0.03334823653881492     0.053728995700568646     0.007588264261666938     322.87162325748625       4.10682171943453E-6
0.095                     -0.03070633933880963     0.053145898775591345     0.007588462510328144     322.88583804282285       3.6549373004507686E-6
0.095                     -0.03238775843991409     0.05153763781779954      0.007566308185737993     322.8591834008816        5.026689153770083E-6
0.09499999999999999       -0.02985410199391651     0.05147328852432528      0.00756786562123312      322.87601471988086       3.7627643183384165E-6
0.09671184007245857       -0.029838690331320535    0.04852394200464676      0.007538700015528199     322.8493847110882        4.510573082972294E-6
0.095                     -0.029156871704162087    0.0485465127037638       0.0075368787385799866    322.8486793939785        5.205397339056364E-6
0.09500000000000001       -0.028526711475674715    0.05014589800608348      0.00755095344045562      322.8676385650711        3.885816022122417E-6
0.09500000000000001       -0.026854101224408667    0.04929366066119038      0.0075394708881650115    322.8615986921606        4.025973499085391E-6
0.095                     -0.030901773366984644    0.04973914330506365      0.0075493702451231584    322.85330092768567       5.109183870685639E-6
0.09999999999999999       -0.03046816654058529     0.049071407308934625     0.007553214396112065     322.8682106406522        3.0353833943419763E-6
0.09991933804537595       -0.0014524689186946995   0.008732430379995944     0.007095862910682298     322.46681838071146       4.607855997409921E-5
0.09999999999999999       0                        0.010000000000000009     0.007106920902926242     322.47200427483233       4.528232095236956E-5
0.0980148249939781        0                        0.009323766759529575     0.007098668726836731     322.46828344206773       4.581594046219305E-5
0.09999999999999999       -0.001999999999999999    0.010000000000000005     0.00710693999301154      322.4727343938899        4.490559756182038E-5
0.09980299678073815       0                        0.008024840736335952     0.0070899396113433604    322.4633044841309        4.692449501912373E-5
0.09775741249698904       -0.0022740240183691256   0.010148404598188505     0.007106700354515745     322.4732769065742        4.4676250125984436E-5
0.09989846770819857       -0.003035778841194148    0.00857861439793771      0.007094585025014285     322.4667158400508        4.593863038727348E-5
0.09999999999999999       -0.003999999999999999    0.010000000000000007     0.007106966928845242     322.4734294687697        4.457871737800609E-5
0.09867764931609525       -0.004769177674565884    0.009639011798071247     0.007102711953645203     322.4718709327756        4.473355263675659E-5
0.09999999999999999       -0.005999999999999998    0.010000000000000005     0.00710697102674415      322.47408207269285       4.429911179379679E-5
0.09985529863219048       -0.004990307312393508    0.008304981159295063     0.007092317057613697     322.46621082298265       4.58802298830592E-5
0.09750500356932897       0                        0.007321220310338689     0.007078084716292569     322.4580761110759        4.739469677627644E-5
0.09953856586958988       -0.0018267291932887097   0.00699737429047585      0.007081364133151556     322.4597145647394        4.7388312885361386E-5
0.09923019594063175       0                        0.006152470546240733     0.007074200463267591     322.4555986809376        4.834333914883646E-5
0.09716268563147756       -0.00225754968228617     0.008278397330179451     0.007086234842765936     322.4629636965382        4.620683691753227E-5
0.09500000000000001       0                        0.010000000000000002     0.0071019496474900665    322.4697697720427        4.525931700996724E-5
0.09614093766352504       0                        0.008214463735842004     0.007082190514156867     322.46024081743724       4.6678849668864004E-5
0.09651924524193992       0                        0.010231523162896758     0.007106028193528373     322.4721649918729        4.505613114979573E-5
0.09482303890518627       -0.001254694037343307    0.008681555568459658     0.007083114747828302     322.46090240058436       4.600553901692914E-5
0.09500000000000001       -0.001999999999999999    0.01                     0.007101783894386981     322.4704132904586        4.4831350254898854E-5
0.09608134281573878       -0.0031287748411431096   0.009139198665089728     0.007092722871050197     322.4665067859032        4.5337117125106715E-5
0.09831348716773206       0                        0.004442488766367243     0.007058941199356083     322.44844649015425       4.9495984337403795E-5
0.09757639072122136       0                        0.005640784032187401     0.007064150553740759     322.45127086237727       4.86214969457545E-5
0.09874658048235278       -0.0016362470637400095   0.005152595553729289     0.007065431938668086     322.4520369228895        4.873960085763062E-5
0.09683338291066244       0                        0.004461361046793705     0.007051752383277387     322.4455883639085        4.9369822854299734E-5
0.09768943279348646       -0.0014434535251475113   0.003606829947947947     0.0070508011741804485    322.4452766155328        4.973246952200259E-5
0.09707106781188474       0                        0.002928932188153795     0.007043639763859054     322.44158817792044       5.036090209027116E-5
0.09461939938480135       0                        0.008086586996046868     0.007073577014981549     322.45586917031727       4.672707280183835E-5
0.09569549883557618       -0.0017478846917732386   0.007544972815315028     0.007072695088490381     322.4563001794649        4.680594111883124E-5
0.09634978301472628       -0.0014870942466333136   0.002274700286338829     0.007036061680812503     322.4388386736477        5.040157291657383E-5
0.09805326231777801       -0.0020339022697459606   0.006702882176323112     0.007074635102026468     322.45695623986654       4.7496048519429665E-5
0.09897392374247996       -0.003059849912054586    0.005587665848538363     0.007069309744356396     322.4543441650819        4.8217793720662366E-5
0.09811198127941938       -0.0035388965594184535   0.007013267225066851     0.007077442842391593     322.45883358878814       4.7024374717900564E-5
0.09950007763271757       -0.004035886413564566    0.006877737203190747     0.007080365457547816     322.4599755286486        4.71390509693174E-5
0.09823460373642533       -0.0031309869357558483   0.004326262139995369     0.007057859001715861     322.44904422627576       4.9038091990979565E-5
0.09985038970731268       -0.006999999999999995    0.00827668267168587      0.007092109141207422     322.4667295012391        4.5656904555536835E-5
0.09871259742682816       -0.007250000000000019    0.009569170667921468     0.007102116156474632     322.4723298937481        4.447764307809311E-5
0.1                       -0.007999999999999998    0.010000000000000007     0.007107023619213999     322.4747168821145        4.4060327042482344E-5
0.09985047253585154       -0.008999999999999996    0.008277156182228178     0.007092145631657763     322.46731991750937       4.544797438368452E-5
0.09867523626792575       -0.008768730475040605    0.009630306721477274     0.007102692232337506     322.47308142623757       4.425915504945117E-5
0.09999999999999999       -0.009999999999999997    0.010000000000000005     0.007107050572756958     322.4752981044549        4.385727940072358E-5
0.09833183036883412       -0.005036195671841238    0.0075324456877180436    0.007082622413015746     322.46182769950707       4.6422968725431866E-5
0.09867704339775578       -0.005016221894074017    0.005029193438337878     0.007064373475338721     322.4526588307695        4.8332200759972114E-5
0.0994136219213095        -0.006054448136900178    0.00662602277384076      0.007078252049399518     322.4595852442828        4.707152977164576E-5
0.09830715496447372       -0.006725108707350276    0.007539913612833289     0.007082642363677644     322.46236241622614       4.621087280798632E-5
0.0961250194081794        -0.005008971603391139    0.009219434300797693     0.007093816596501737     322.4676751356573        4.497989656898781E-5
0.09476671099170572       -0.004978513953496746    0.008490541050060715     0.007080013267016406     322.4606505979914        4.54890840207895E-5
0.095                     -0.005999999999999998    0.010000000000000002     0.00710190886220871      322.4717972225011        4.417110963827109E-5
0.09500000000000001       -0.003999999999999999    0.010000000000000002     0.007101928833756973     322.4711655174338        4.4472157487186436E-5
0.09555751123367544       0                        0.0016865128322964705    0.0070283496862341985    322.4350456392162        5.0901532503005814E-5
0.09524732639309877       0                        0.0036427801058923626    0.007036252992849805     322.43894832888003       4.9737491093632565E-5
0.09656795876596609       -0.0022410753462032145   0.006408390062170395     0.007065707418444775     322.4530915802388        4.759760104392984E-5
0.09470408960146527       -0.002930979545385917    0.008305437808345055     0.007077162973532346     322.45861052207823       4.595561647294295E-5
0.0953484160151432        -0.003306341612811931    0.006794194537540872     0.007062498293346956     322.4520611687092        4.706336545036223E-5
0.09416199378945214       -0.0014223007803518069   0.007229114275802413     0.007058784512918294     322.44950065440025       4.700113253969375E-5
0.09554722228631173       0                        0.006106038001635755     0.007057031235624342     322.44838639093666       4.819217829149317E-5
0.09632041039609528       -0.0024552027908362143   0.004191467587689713     0.00704694283591887      322.444373305291         4.905236701176887E-5
0.0971120320843694        -0.0028999479308716354   0.002970135162686258     0.0070440968495285574    322.44280335494415       4.98454025374427E-5
0.09471333011725612       -0.0015135200426133952   0.0011804467683580093    0.007020639423724049     322.4324056202145        5.077445042225944E-5
0.09464933889622544       -0.0015275986517320043   0.002992175277655024     0.0070281081605905555    322.4360027851238        4.9750911159834E-5
0.09417022664781426       0                        0.0024626346047481457    0.0070218225005992665    322.43280305229746       5.0273083274785855E-5
0.09384752945353421       0                        7.698040592744368E-4     0.007013075824801914     322.42882385781326       5.111147266810107E-5
0.09353553390593274       0                        0.006464466094067259     0.007043632607669198     322.4422140670852        4.781370897395405E-5
0.09458534767519476       -0.001541677260850605    0.004803903786952091     0.007038838555408959     322.44085847877176       4.8655015071871384E-5
0.09562834360468063       -0.003137701321955099    0.0017343029170159897    0.007029025707420327     322.4364194014544        5.035215752496563E-5
0.09725916865285568       -0.003918035982623292    0.005459924887374252     0.007061277658523897     322.4513451266177        4.8058034753495586E-5
0.09765670015185536       -0.0043068682951783455   0.0035676642823482944    0.007050420179671958     322.4460624468849        4.9326258817193184E-5
0.09412887326432035       -0.004371607879420644    0.007179999012911378     0.007057836068430346     322.4500554643284        4.650410357452276E-5
0.0962837335692861        -0.004705085029490781    0.006593587634753169     0.0070659752145652574    322.4540800927582        4.7067846535405144E-5
0.09630404407527972       -0.0038869101758516526   0.004171884754889905     0.007046710591069694     322.4447427764619        4.884840005693658E-5
0.09650065374826679       -0.004567580728033946    0.0024012171471251348    0.007037605981029331     322.44051880270587       4.988756223581432E-5
0.09828247956011331       -0.008414021742859316    0.007547381537948534     0.007082676214524296     322.4628715364963        4.602667261468532E-5
0.09940564927245713       -0.008000426341049655    0.006603860756163453     0.007078085915296937     322.4600728059472        4.6878438361497845E-5
0.09940557702087437       -0.009999992072120111    0.006603660661182374     0.007078149447021512     322.4606383361121        4.66957844178289E-5
0.09865663858447624       -0.00703021330015171     0.004993743073137666     0.007064088814900575     322.45312997364675       4.812674681144794E-5
0.09751845209832193       -0.006108252485586547    0.003406603451540416     0.007048771564413941     322.4458785084824        4.919866133567262E-5